# vtk DataFile Version 5.1
vtk output
ASCII
DATASET POLYDATA
POINTS 34320 float
0.0446625 0.0250388 0.000211547 0.0500404 0.0224986 -0.00537692 0.052063 0.027627 -0.000510705 
0.102582 0.0388166 -0.00690902 0.0948247 0.0352443 -0.00849291 0.101147 0.0339077 -0.0118745 
0.166434 0.0440894 -0.0156607 0.174559 0.0425062 -0.0186722 0.173257 0.0474011 -0.0133909 
0.279828 0.0542921 -0.0207128 0.287622 0.0521599 -0.0234111 0.288327 0.057208 -0.0188121 
0.910537 0.0683643 -0.0315279 0.902778 0.0713761 -0.0300832 0.90254 0.0651567 -0.03267 
0.359817 0.0556956 -0.0255946 0.367527 0.0540683 -0.0273991 0.366954 0.0588187 -0.0233213 
0.447104 0.0615576 -0.0248867 0.450991 0.0680142 -0.0196612 0.443979 0.0683347 -0.0190562 
-0.0454411 0.00397925 0.0482066 -0.0511 -1.27574e-31 0.04939 -0.045189 0.00377118 0.0482392 
0.276643 0.107317 0.0351043 0.279988 0.114349 0.0375041 0.272166 0.113204 0.0372595 
0.235728 0.100522 0.0337911 0.229936 0.0942847 0.032176 0.237809 0.095431 0.0323232 
0.521865 0.124506 0.0556803 0.523513 0.12256 0.0596782 0.519894 0.122374 0.0599267 
0.210988 0.103035 0.0602131 0.212054 0.103155 0.0573638 0.213432 0.103254 0.060423 
0.122224 0.0887643 0.0416776 0.123035 0.090372 0.0454814 0.120437 0.0899008 0.0453315 
0.0017458 0.0471478 0.046705 0.00212023 0.048232 0.0474451 0.00118785 0.0475871 0.04755 
0.00763009 0.0518994 0.0468769 0.00666945 0.0512737 0.0469703 0.00795185 0.0507592 0.045576 
-0.0511024 0.00457507 0.0548964 -0.05659 -1.2343e-31 0.05549 -0.0511 -1.27574e-31 0.04939 
-0.0149081 0.0312941 0.0458677 -0.0156687 0.034874 0.0497853 -0.0217454 0.0298692 0.0507022 
0.00957667 0.0531538 0.046695 0.0106784 0.0530097 0.0458205 0.0105717 0.0537702 0.0466073 
0.0115863 0.0543966 0.0465205 0.0123209 0.0536054 0.0453314 0.0126222 0.0550331 0.0464341 
0.0420216 0.0702505 0.0452737 0.0407297 0.0696968 0.0452721 0.0417356 0.0693309 0.0443009 
0.0259164 0.0625986 0.0455971 0.0267753 0.0619054 0.0445466 0.0270791 0.0632013 0.0455492 
0.029421 0.0643966 0.0454639 0.0304623 0.0633961 0.0438761 0.030632 0.0650012 0.0454252 
0.026253 0.0600198 0.0428624 0.0267753 0.0619054 0.0445466 0.0252283 0.0610513 0.0446122 
0.0472887 0.0724326 0.0453229 0.0459542 0.0719 0.0453047 0.0468706 0.0711933 0.0439517 
0.0524623 0.0735117 0.0441959 0.0527404 0.0745646 0.0454439 0.051368 0.0740346 0.0454076 
0.0822833 0.0829283 0.0454621 0.0827081 0.08401 0.0471339 0.0811324 0.0835855 0.0470108 
0.0937858 0.0856724 0.0460694 0.093988 0.0867904 0.0481012 0.0923436 0.0864041 0.0479523 
0.136942 0.094669 0.0526064 0.137948 0.0942319 0.0507772 0.138885 0.0949488 0.0528214 
0.175414 0.0991508 0.0539872 0.176167 0.0996013 0.0568778 0.173976 0.0993578 0.0566513 
0.182149 0.099956 0.054752 0.18284 0.100316 0.0575589 0.180603 0.10007 0.0573322 
0.195534 0.101455 0.055864 0.196639 0.1017 0.0589052 0.194299 0.101468 0.0586837 
0.260053 0.107315 0.0607741 0.257635 0.107076 0.0610826 0.258576 0.107488 0.0579793 
0.556105 0.124226 0.0572843 0.552483 0.124041 0.0575637 0.554084 0.125953 0.0537188 
0.582824 0.127434 0.0512391 0.585099 0.125684 0.0549141 0.581474 0.125505 0.0552221 
0.60325 0.126572 0.0533179 0.604617 0.128593 0.0490351 0.606887 0.126746 0.0529943 
0.757362 0.135965 0.0328321 0.759852 0.134528 0.0375884 0.756211 0.134331 0.0379802 
0.781782 0.135731 0.0351755 0.778136 0.135532 0.0355792 0.779641 0.136957 0.0307315 
0.826177 0.139365 0.0251871 0.829266 0.138464 0.0297953 0.825614 0.138251 0.0302161 
0.859191 0.141596 0.0180384 0.861579 0.141121 0.021762 0.858201 0.140871 0.0225729 
0.944199 0.14597 0.0122652 0.946262 0.146201 0.0160295 0.942604 0.14595 0.0164647 
0.925319 0.144879 0.0104209 0.927396 0.144945 0.0140475 0.924013 0.144737 0.0146336 
0.994943 0.148717 0.00591416 0.997425 0.149294 0.00994004 0.993769 0.149138 0.0103698 
0.122975 0.0916521 0.0488672 0.12372 0.0925997 0.0511397 0.12188 0.092291 0.05094 
0.972877 0.147667 0.00881106 0.975505 0.148152 0.0125381 0.971853 0.147928 0.0129738 
0.363815 0.115522 0.0625246 0.360586 0.115429 0.0622729 0.362484 0.117307 0.0580799 
0.886218 0.142493 0.0190568 0.887735 0.142155 0.022957 0.884079 0.141917 0.0233877 
0.635996 0.128145 0.0502559 0.637309 0.130266 0.0454273 0.639635 0.128318 0.0499042 
0.335637 0.115184 0.0581908 0.338117 0.113761 0.0624703 0.3345 0.11357 0.062269 
0.238684 0.105692 0.0559547 0.240562 0.1057 0.0590505 0.238107 0.10549 0.0590182 
0.0886974 0.0845863 0.045937 0.0890909 0.0856273 0.0476637 0.0874735 0.0852247 0.0475256 
0.690403 0.132668 0.040175 0.686922 0.132559 0.0403979 0.688873 0.134537 0.0351811 
0.563753 0.128738 0.0481245 0.566033 0.12668 0.0525017 0.562311 0.126565 0.052655 
0.907527 0.143746 0.0165674 0.909676 0.143644 0.0203704 0.906019 0.143398 0.0208006 
0.836141 0.139724 0.0248212 0.837723 0.140544 0.020767 0.839777 0.139892 0.0245408 
0.0762047 0.0811772 0.0449397 0.0764281 0.0823059 0.0466609 0.0748671 0.081852 0.046552 
0.982065 0.147611 0.00199863 0.983444 0.147044 -0.0045194 0.987177 0.147877 0.00189261 
0.489169 0.124931 0.0534244 0.490767 0.122957 0.0575641 0.487431 0.122922 0.0574805 
0.820283 0.138894 0.0266303 0.821961 0.138028 0.0306368 0.818309 0.137817 0.0310549 
0.303098 0.109974 0.0656896 0.300106 0.109771 0.0655994 0.301441 0.110899 0.0620779 
0.186191 0.100417 0.0550056 0.187376 0.100774 0.0580096 0.1851 0.10054 0.0577856 
0.166637 0.0981062 0.0533937 0.167483 0.0986336 0.0559671 0.165353 0.0983772 0.055739 
0.0566864 0.0748047 0.0439456 0.0569768 0.0760996 0.0455849 0.0555406 0.0755823 0.0455338 
0.894712 0.143038 0.0174749 0.895905 0.143538 0.0116909 0.898401 0.14324 0.0171592 
0.347494 0.115976 0.0586307 0.350228 0.114744 0.0622162 0.346333 0.114317 0.0625853 
0.719739 0.133816 0.0378025 0.721651 0.135528 0.0329237 0.723414 0.134109 0.0370831 
0.112081 0.0896857 0.0478999 0.112862 0.0906987 0.049972 0.111095 0.0903615 0.0497873 
0.987177 0.147877 0.00189261 0.98994 0.148525 0.00667051 0.986044 0.148362 0.00729934 
0.0863707 0.0839155 0.0455987 0.0844849 0.0834945 0.0455812 0.0858468 0.0825439 0.0434222 
0.291025 0.109871 0.0623271 0.28812 0.109637 0.0622663 0.289233 0.110484 0.059101 
0.390197 0.120138 0.0555594 0.392059 0.117725 0.0612523 0.38883 0.117638 0.0610546 
0.399149 0.117961 0.0615266 0.400179 0.119983 0.0571443 0.402561 0.118174 0.0614213 
0.120858 0.0912395 0.0485363 0.118855 0.0909153 0.0484723 0.120437 0.0899008 0.0453315 
0.819699 0.140278 0.0201502 0.814781 0.140081 0.0206713 0.81654 0.141612 0.0132235 
0.342189 0.114102 0.0623797 0.344044 0.112627 0.0663966 0.340757 0.112419 0.0663778 
0.904885 0.144258 0.00422319 0.907111 0.144049 0.010494 0.902425 0.143837 0.0109507 
0.229577 0.104853 0.0559508 0.230868 0.104857 0.0589754 0.228352 0.104628 0.059108 
0.474519 0.126373 0.0496857 0.476505 0.128992 0.0442644 0.479355 0.125535 0.0516888 
0.956652 0.146692 0.010152 0.952987 0.146462 0.0102345 0.953291 0.146228 0.00472837 
0.600364 0.132746 0.0396712 0.603524 0.131048 0.0435949 0.599221 0.130568 0.0446486 
0.499175 0.12594 0.0518029 0.501229 0.123658 0.056597 0.497827 0.123365 0.0570488 
0.569154 0.128978 0.04772 0.570871 0.13148 0.0422741 0.573387 0.129268 0.0471725 
0.552955 0.130155 0.0448389 0.554931 0.133058 0.038438 0.557884 0.130681 0.0438036 
0.428318 0.120976 0.0577728 0.431973 0.119894 0.0603891 0.42815 0.119156 0.0616562 
-0.0511654 0.00466862 0.0549055 -0.05659 -1.2343e-31 0.05549 -0.0511024 0.00457507 0.0548964 
0.00666945 0.0512737 0.0469703 0.00649492 0.0525217 0.0468854 0.00556042 0.0518951 0.0469784 
0.0326802 0.0675264 0.0453213 0.0339157 0.0681232 0.0452978 0.0338675 0.0681264 0.0454091 
0.0455487 0.073304 0.0452892 0.0468843 0.0738495 0.0453114 0.0457667 0.0738662 0.0464981 
0.0233379 0.0638479 0.0467174 0.0232559 0.0626549 0.0456513 0.0243975 0.0632815 0.0455971 
0.00463961 0.051275 0.0470717 0.00556042 0.0518951 0.0469784 0.00481431 0.0521713 0.0476847 
-0.100494 0.0423281 0.116681 -0.0951891 0.0403412 0.112727 -0.0946599 0.0486801 0.113976 
0.163784 0.101322 0.0608084 0.163147 0.100732 0.0582712 0.164987 0.100955 0.058511 
0.96647 0.151777 0.0217346 0.964305 0.151351 0.0177745 0.967639 0.151587 0.0172501 
0.054086 0.0774094 0.0470603 0.05375 0.0765308 0.04549 0.0551673 0.0770579 0.0455404 
0.0495977 0.0749448 0.0453682 0.0509748 0.0754854 0.0454046 0.0499531 0.0757722 0.0469669 
0.0416039 0.0716316 0.0452511 0.0429076 0.0721964 0.0452592 0.0422122 0.0722048 0.0461339 
0.0199894 0.0619734 0.0468566 0.0198929 0.0607875 0.0458316 0.0210066 0.0614103 0.0457685 
0.0093782 0.0544003 0.0466155 0.0103614 0.0550271 0.0465291 0.0096411 0.0552775 0.0471846 
0.0362138 0.0733305 0.0497712 0.0364362 0.0719497 0.0482464 0.0376738 0.0726286 0.0484488 
0.0889447 0.0892558 0.0508724 0.0886513 0.088248 0.0491596 0.0901242 0.088576 0.0492503 
0.0143975 0.0587304 0.0472336 0.0144975 0.0576054 0.0461939 0.0155617 0.0582399 0.0461164 
0.109439 0.0935569 0.0531645 0.108913 0.0925643 0.051348 0.11058 0.0928835 0.0515305 
0.149329 0.0996458 0.0585728 0.14852 0.0989132 0.0562989 0.150437 0.0991796 0.056574 
0.21441 0.105652 0.0673214 0.213524 0.105679 0.0641603 0.215735 0.105866 0.0642893 
0.0117458 0.0572085 0.0475071 0.0130576 0.0578429 0.0472592 0.0113856 0.0584309 0.0487725 
0.188016 0.103579 0.0639064 0.18739 0.103299 0.0612399 0.189308 0.10349 0.0613812 
0.0403163 0.0759006 0.0508543 0.0408507 0.0745355 0.0491927 0.0422343 0.0753264 0.0495021 
0.245166 0.107177 0.0738873 0.243997 0.107617 0.0703439 0.246495 0.107765 0.0705044 
0.116532 0.09488 0.0541195 0.116077 0.0939412 0.0522571 0.117809 0.094213 0.0523732 
0.0172304 0.0618695 0.0483345 0.0172329 0.0603884 0.0470193 0.0184554 0.0611716 0.0470005 
0.0825294 0.0875393 0.0502518 0.0822491 0.0865473 0.0485927 0.0836252 0.0869188 0.0487132 
0.284049 0.108929 0.0772916 0.282844 0.109832 0.07341 0.28531 0.109959 0.073589 
-0.0434495 0.0600077 0.085837 -0.0422112 0.0529266 0.0821912 -0.0369784 0.0561026 0.0804688 
[...]
POINT_DATA 34320
SCALARS VariableScalar float
LOOKUP_TABLE default
-7.04104e-11 -7.04104e-11 -7.04104e-11 -1.91512e-10 -1.91512e-10 -1.91512e-10 -1.11035e-10 -1.11035e-10 -1.11035e-10 
-3.17086e-11 -3.17086e-11 -3.17086e-11 -1.39033e-10 -1.39033e-10 -1.39033e-10 -1.23978e-10 -1.23978e-10 -1.23978e-10 
-2.4258e-10 -2.4258e-10 -2.4258e-10 -5.1832e-10 -5.1832e-10 -5.1832e-10 -1.38127e-09 -1.38127e-09 -1.38127e-09 
-1.24601e-09 -1.24601e-09 -1.24601e-09 -5.81326e-10 -5.81326e-10 -5.81326e-10 -1.54775e-09 -1.54775e-09 -1.54775e-09 
-1.36548e-09 -1.36548e-09 -1.36548e-09 -8.9419e-13 -8.9419e-13 -8.9419e-13 1.3744e-10 1.3744e-10 1.3744e-10 
-9.97319e-10 -9.97319e-10 -9.97319e-10 -3.68593e-10 -3.68593e-10 -3.68593e-10 1.68481e-10 1.68481e-10 1.68481e-10 
2.01314e-10 2.01314e-10 2.01314e-10 8.26914e-11 8.26914e-11 8.26914e-11 2.70405e-10 2.70405e-10 2.70405e-10 
1.94578e-10 1.94578e-10 1.94578e-10 1.96397e-10 1.96397e-10 1.96397e-10 -1.25019e-11 -1.25019e-11 -1.25019e-11 
-8.43351e-11 -8.43351e-11 -8.43351e-11 -6.86681e-10 -6.86681e-10 -6.86681e-10 -9.14624e-10 -9.14624e-10 -9.14624e-10 
-1.4903e-09 -1.4903e-09 -1.4903e-09 -1.66548e-09 -1.66548e-09 -1.66548e-09 -1.66709e-09 -1.66709e-09 -1.66709e-09 
-1.63787e-09 -1.63787e-09 -1.63787e-09 -1.45021e-09 -1.45021e-09 -1.45021e-09 -4.99803e-10 -4.99803e-10 -4.99803e-10 
-4.51663e-10 -4.51663e-10 -4.51663e-10 -4.06371e-10 -4.06371e-10 -4.06371e-10 -2.46345e-10 -2.46345e-10 -2.46345e-10 
-2.23603e-10 -2.23603e-10 -2.23603e-10 -2.29542e-10 -2.29542e-10 -2.29542e-10 -2.4486e-10 -2.4486e-10 -2.4486e-10 
-1.06997e-10 -1.06997e-10 -1.06997e-10 -1.88254e-10 -1.88254e-10 -1.88254e-10 3.25552e-10 3.25552e-10 3.25552e-10 
-1.34156e-09 -1.34156e-09 -1.34156e-09 -7.64296e-12 -7.64296e-12 -7.64296e-12 -1.05148e-09 -1.05148e-09 -1.05148e-09 
-1.36812e-10 -1.36812e-10 -1.36812e-10 -3.83663e-10 -3.83663e-10 -3.83663e-10 -1.12717e-09 -1.12717e-09 -1.12717e-09 
-1.50845e-09 -1.50845e-09 -1.50845e-09 -8.49685e-10 -8.49685e-10 -8.49685e-10 -3.47623e-10 -3.47623e-10 -3.47623e-10 
-5.4357e-10 -5.4357e-10 -5.4357e-10 -1.63102e-10 -1.63102e-10 -1.63102e-10 -2.33413e-10 -2.33413e-10 -2.33413e-10 
-5.67873e-10 -5.67873e-10 -5.67873e-10 3.41263e-11 3.41263e-11 3.41263e-11 -7.06366e-10 -7.06366e-10 -7.06366e-10 
-1.94985e-10 -1.94985e-10 -1.94985e-10 -1.26021e-09 -1.26021e-09 -1.26021e-09 -1.62674e-09 -1.62674e-09 -1.62674e-09 
-1.67624e-09 -1.67624e-09 -1.67624e-09 -2.01129e-10 -2.01129e-10 -2.01129e-10 -1.90126e-10 -1.90126e-10 -1.90126e-10 
-1.08506e-09 -1.08506e-09 -1.08506e-09 -3.17354e-10 -3.17354e-10 -3.17354e-10 -1.1984e-09 -1.1984e-09 -1.1984e-09 
1.36955e-10 1.36955e-10 1.36955e-10 -8.11205e-10 -8.11205e-10 -8.11205e-10 -1.33275e-09 -1.33275e-09 -1.33275e-09 
-9.65894e-10 -9.65894e-10 -9.65894e-10 -9.30311e-10 -9.30311e-10 -9.30311e-10 -1.33725e-09 -1.33725e-09 -1.33725e-09 
-2.63525e-10 -2.63525e-10 -2.63525e-10 -1.07531e-09 -1.07531e-09 -1.07531e-09 -2.15061e-10 -2.15061e-10 -2.15061e-10 
-1.49816e-09 -1.49816e-09 -1.49816e-09 -8.1908e-10 -8.1908e-10 -8.1908e-10 -9.65431e-11 -9.65431e-11 -9.65431e-11 
-5.46029e-10 -5.46029e-10 -5.46029e-10 -6.90189e-10 -6.90189e-10 -6.90189e-10 -5.82897e-10 -5.82897e-10 -5.82897e-10 
-6.48687e-10 -6.48687e-10 -6.48687e-10 -8.60743e-10 -8.60743e-10 -8.60743e-10 -8.64604e-10 -8.64604e-10 -8.64604e-10 
3.14382e-10 3.14382e-10 3.14382e-10 -3.16529e-10 -3.16529e-10 -3.16529e-10 5.89409e-11 5.89409e-11 5.89409e-11 
4.76922e-10 4.76922e-10 4.76922e-10 3.55692e-10 3.55692e-10 3.55692e-10 1.66613e-11 1.66613e-11 1.66613e-11 
-1.7777e-09 -1.7777e-09 -1.7777e-09 2.09801e-10 2.09801e-10 2.09801e-10 4.49812e-11 4.49812e-11 4.49812e-11 
3.35241e-11 3.35241e-11 3.35241e-11 1.15324e-10 1.15324e-10 1.15324e-10 4.79026e-10 4.79026e-10 4.79026e-10 
3.91504e-10 3.91504e-10 3.91504e-10 2.47699e-10 2.47699e-10 2.47699e-10 -6.90253e-10 -6.90253e-10 -6.90253e-10 
4.45658e-10 4.45658e-10 4.45658e-10 -1.11643e-09 -1.11643e-09 -1.11643e-09 -1.67411e-09 -1.67411e-09 -1.67411e-09 
-1.75775e-09 -1.75775e-09 -1.75775e-09 3.95254e-10 3.95254e-10 3.95254e-10 -1.84277e-09 -1.84277e-09 -1.84277e-09 
1.1946e-10 1.1946e-10 1.1946e-10 -1.66911e-09 -1.66911e-09 -1.66911e-09 -1.23299e-09 -1.23299e-09 -1.23299e-09 
4.30158e-10 4.30158e-10 4.30158e-10 -5.85954e-10 -5.85954e-10 -5.85954e-10 -1.50784e-09 -1.50784e-09 -1.50784e-09 
-1.11918e-10 -1.11918e-10 -1.11918e-10 -1.59399e-09 -1.59399e-09 -1.59399e-09 -1.10309e-09 -1.10309e-09 -1.10309e-09 
-9.46097e-11 -9.46097e-11 -9.46097e-11 -1.80721e-09 -1.80721e-09 -1.80721e-09 -1.50768e-10 -1.50768e-10 -1.50768e-10 
-1.51551e-09 -1.51551e-09 -1.51551e-09 -1.80701e-09 -1.80701e-09 -1.80701e-09 -2.60857e-10 -2.60857e-10 -2.60857e-10 
-1.73423e-09 -1.73423e-09 -1.73423e-09 -1.58707e-09 -1.58707e-09 -1.58707e-09 -2.39066e-10 -2.39066e-10 -2.39066e-10 
-1.72572e-09 -1.72572e-09 -1.72572e-09 -1.42927e-09 -1.42927e-09 -1.42927e-09 -1.62048e-09 -1.62048e-09 -1.62048e-09 
3.4222e-12 3.4222e-12 3.4222e-12 -4.09059e-10 -4.09059e-10 -4.09059e-10 -1.77474e-09 -1.77474e-09 -1.77474e-09 
-9.36906e-10 -9.36906e-10 -9.36906e-10 -2.85218e-10 -2.85218e-10 -2.85218e-10 -3.25933e-10 -3.25933e-10 -3.25933e-10 
-2.57207e-10 -2.57207e-10 -2.57207e-10 -6.02494e-10 -6.02494e-10 -6.02494e-10 3.74516e-10 3.74516e-10 3.74516e-10 
-1.11194e-09 -1.11194e-09 -1.11194e-09 -2.73806e-10 -2.73806e-10 -2.73806e-10 -1.38389e-09 -1.38389e-09 -1.38389e-09 
-1.70439e-09 -1.70439e-09 -1.70439e-09 -9.34284e-10 -9.34284e-10 -9.34284e-10 -3.11294e-10 -3.11294e-10 -3.11294e-10 
-3.55131e-10 -3.55131e-10 -3.55131e-10 -9.63072e-10 -9.63072e-10 -9.63072e-10 -2.74887e-10 -2.74887e-10 -2.74887e-10 
-4.32838e-10 -4.32838e-10 -4.32838e-10 -4.64376e-10 -4.64376e-10 -4.64376e-10 -5.39628e-10 -5.39628e-10 -5.39628e-10 
-2.92911e-10 -2.92911e-10 -2.92911e-10 -1.82996e-09 -1.82996e-09 -1.82996e-09 -3.47077e-10 -3.47077e-10 -3.47077e-10 
-2.69814e-10 -2.69814e-10 -2.69814e-10 -1.23467e-09 -1.23467e-09 -1.23467e-09 -1.12122e-09 -1.12122e-09 -1.12122e-09 
-7.64395e-10 -7.64395e-10 -7.64395e-10 -2.81358e-10 -2.81358e-10 -2.81358e-10 -1.44358e-09 -1.44358e-09 -1.44358e-09 
-2.98413e-10 -2.98413e-10 -2.98413e-10 -3.40635e-10 -3.40635e-10 -3.40635e-10 -1.98257e-10 -1.98257e-10 -1.98257e-10 
-7.20352e-10 -7.20352e-10 -7.20352e-10 -7.83115e-10 -7.83115e-10 -7.83115e-10 -3.63142e-10 -3.63142e-10 -3.63142e-10 
-5.07745e-10 -5.07745e-10 -5.07745e-10 -8.63868e-10 -8.63868e-10 -8.63868e-10 -5.85948e-10 -5.85948e-10 -5.85948e-10 
-1.06513e-09 -1.06513e-09 -1.06513e-09 -1.75222e-09 -1.75222e-09 -1.75222e-09 -1.3056e-09 -1.3056e-09 -1.3056e-09 
-1.14318e-09 -1.14318e-09 -1.14318e-09 -7.37851e-10 -7.37851e-10 -7.37851e-10 5.47969e-10 5.47969e-10 5.47969e-10 
-1.82845e-09 -1.82845e-09 -1.82845e-09 -1.88258e-09 -1.88258e-09 -1.88258e-09 1.16059e-10 1.16059e-10 1.16059e-10 
-1.49919e-09 -1.49919e-09 -1.49919e-09 -1.24878e-09 -1.24878e-09 -1.24878e-09 2.5943e-10 2.5943e-10 2.5943e-10 
-1.59792e-09 -1.59792e-09 -1.59792e-09 -5.35442e-10 -5.35442e-10 -5.35442e-10 -6.60791e-10 -6.60791e-10 -6.60791e-10 
-1.53757e-09 -1.53757e-09 -1.53757e-09 -2.00871e-10 -2.00871e-10 -2.00871e-10 1.85343e-10 1.85343e-10 1.85343e-10 
-6.26848e-10 -6.26848e-10 -6.26848e-10 -3.11854e-10 -3.11854e-10 -3.11854e-10 -1.47395e-09 -1.47395e-09 -1.47395e-09 
-1.43714e-09 -1.43714e-09 -1.43714e-09 -2.57784e-10 -2.57784e-10 -2.57784e-10 -1.62834e-09 -1.62834e-09 -1.62834e-09 
-1.52779e-10 -1.52779e-10 -1.52779e-10 -1.75583e-09 -1.75583e-09 -1.75583e-09 -8.50477e-10 -8.50477e-10 -8.50477e-10 
-7.86137e-10 -7.86137e-10 -7.86137e-10 -6.52966e-10 -6.52966e-10 -6.52966e-10 -1.98792e-10 -1.98792e-10 -1.98792e-10 
-1.04556e-09 -1.04556e-09 -1.04556e-09 -7.711e-10 -7.711e-10 -7.711e-10 -9.06252e-11 -9.06252e-11 -9.06252e-11 
-1.04188e-09 -1.04188e-09 -1.04188e-09 1.5599e-10 1.5599e-10 1.5599e-10 -1.29835e-10 -1.29835e-10 -1.29835e-10 
-1.50708e-09 -1.50708e-09 -1.50708e-09 -5.28749e-10 -5.28749e-10 -5.28749e-10 -1.55015e-10 -1.55015e-10 -1.55015e-10 
-1.03431e-10 -1.03431e-10 -1.03431e-10 -9.26504e-11 -9.26504e-11 -9.26504e-11 -1.18236e-10 -1.18236e-10 -1.18236e-10 
-1.20128e-10 -1.20128e-10 -1.20128e-10 -2.76684e-10 -2.76684e-10 -2.76684e-10 -1.58605e-10 -1.58605e-10 -1.58605e-10 
-1.25026e-09 -1.25026e-09 -1.25026e-09 -1.45215e-10 -1.45215e-10 -1.45215e-10 -2.44288e-10 -2.44288e-10 -2.44288e-10 
-4.55301e-10 -4.55301e-10 -4.55301e-10 -1.74491e-10 -1.74491e-10 -1.74491e-10 -1.28378e-10 -1.28378e-10 -1.28378e-10 
-1.69735e-10 -1.69735e-10 -1.69735e-10 -1.61654e-09 -1.61654e-09 -1.61654e-09 -1.86088e-09 -1.86088e-09 -1.86088e-09 
-1.71616e-10 -1.71616e-10 -1.71616e-10 -1.8059e-09 -1.8059e-09 -1.8059e-09 -1.42933e-09 -1.42933e-09 -1.42933e-09 
-1.44373e-09 -1.44373e-09 -1.44373e-09 -1.6975e-09 -1.6975e-09 -1.6975e-09 -1.75636e-09 -1.75636e-09 -1.75636e-09 
1.6453e-10 1.6453e-10 1.6453e-10 -1.34171e-09 -1.34171e-09 -1.34171e-09 -1.83958e-09 -1.83958e-09 -1.83958e-09 
-8.54202e-10 -8.54202e-10 -8.54202e-10 -5.07245e-10 -5.07245e-10 -5.07245e-10 -6.25704e-10 -6.25704e-10 -6.25704e-10 
-7.25271e-10 -7.25271e-10 -7.25271e-10 9.15428e-11 9.15428e-11 9.15428e-11 -3.2935e-10 -3.2935e-10 -3.2935e-10 
2.8326e-10 2.8326e-10 2.8326e-10 8.5552e-11 8.5552e-11 8.5552e-11 -1.41943e-10 -1.41943e-10 -1.41943e-10 
-1.41943e-10 -3.60889e-10 -3.60889e-10 -3.60889e-10 -3.60889e-10 8.2594e-11 8.2594e-11 8.2594e-11 8.2594e-11 
9.69386e-11 9.69386e-11 9.69386e-11 9.69386e-11 -1.98869e-11 -1.98869e-11 -1.98869e-11 -1.98869e-11 -1.02643e-09 
-1.02643e-09 -1.02643e-09 -1.02643e-09 -1.62597e-12 -1.62597e-12 -1.62597e-12 -1.62597e-12 -8.18199e-11 -8.18199e-11 
-8.18199e-11 -8.18199e-11 -4.17475e-11 -4.17475e-11 -4.17475e-11 -4.17475e-11 -1.12375e-10 -1.12375e-10 -1.12375e-10 
-1.12375e-10 -6.45392e-12 -6.45392e-12 -6.45392e-12 -6.45392e-12 -4.86132e-11 -4.86132e-11 -4.86132e-11 -4.86132e-11 
-6.85639e-12 -6.85639e-12 -6.85639e-12 -6.85639e-12 -2.95915e-11 -2.95915e-11 -2.95915e-11 -2.95915e-11 1.46498e-10 
1.46498e-10 1.46498e-10 1.46498e-10 -1.68171e-11 -1.68171e-11 -1.68171e-11 -1.68171e-11 1.32532e-10 1.32532e-10 
1.32532e-10 1.32532e-10 -1.15426e-10 -1.15426e-10 -1.15426e-10 -1.15426e-10 -2.19051e-10 -2.19051e-10 -2.19051e-10 
-2.19051e-10 -4.2676e-12 -4.2676e-12 -4.2676e-12 -4.2676e-12 -2.18692e-10 -2.18692e-10 -2.18692e-10 -2.18692e-10 
-2.30586e-10 -2.30586e-10 -2.30586e-10 -2.30586e-10 -2.96964e-12 -2.96964e-12 -2.96964e-12 -2.96964e-12 -1.05141e-11 
-1.05141e-11 -1.05141e-11 -1.05141e-11 -2.70227e-10 -2.70227e-10 -2.70227e-10 -2.70227e-10 -2.29477e-10 -2.29477e-10 
-2.29477e-10 -2.29477e-10 -3.84534e-12 -3.84534e-12 -3.84534e-12 -3.84534e-12 -4.60086e-12 -4.60086e-12 -4.60086e-12 
-4.60086e-12 -2.78642e-10 -2.78642e-10 -2.78642e-10 -2.78642e-10 -9.22912e-12 -9.22912e-12 -9.22912e-12 -9.22912e-12 
-3.95872e-10 -3.95872e-10 -3.95872e-10 -3.95872e-10 -3.89358e-10 -3.89358e-10 -3.89358e-10 -3.89358e-10 -9.85412e-12 
-9.85412e-12 -9.85412e-12 -9.85412e-12 -5.33672e-10 -5.33672e-10 -5.33672e-10 -5.33672e-10 -5.72863e-10 -5.72863e-10 
-5.72863e-10 -5.72863e-10 -6.42798e-12 -6.42798e-12 -6.42798e-12 -6.42798e-12 -6.91873e-10 -6.91873e-10 -6.91873e-10 
-6.91873e-10 -7.80535e-10 -7.80535e-10 -7.80535e-10 -7.80535e-10 2.79556e-13 2.79556e-13 2.79556e-13 2.79556e-13 
1.02596e-11 1.02596e-11 1.02596e-11 1.02596e-11 1.9989e-11 1.9989e-11 1.9989e-11 1.9989e-11 -1.02087e-09 
-1.02087e-09 -1.02087e-09 -1.02087e-09 -1.02126e-09 -1.02126e-09 -1.02126e-09 -1.02126e-09 -7.09741e-12 -7.09741e-12 
-7.09741e-12 -7.09741e-12 -6.84077e-10 -6.84077e-10 -6.84077e-10 -6.84077e-10 -6.18751e-10 -6.18751e-10 -6.18751e-10 
-6.18751e-10 -1.1442e-10 -1.1442e-10 -1.1442e-10 -1.1442e-10 -2.10637e-10 -2.10637e-10 -2.10637e-10 -2.10637e-10 
-4.0937e-10 -4.0937e-10 -4.0937e-10 -4.0937e-10 -9.84448e-10 -9.84448e-10 -9.84448e-10 -9.84448e-10 -2.93153e-10 
-2.93153e-10 -2.93153e-10 -2.93153e-10 -9.93795e-10 -9.93795e-10 -9.93795e-10 -9.93795e-10 -9.61989e-10 -9.61989e-10 
-9.61989e-10 -9.61989e-10 -1.05336e-09 -1.05336e-09 -1.05336e-09 -1.05336e-09 -8.62908e-10 -8.62908e-10 -8.62908e-10 
-8.62908e-10 -2.74063e-10 -2.74063e-10 -2.74063e-10 -2.74063e-10 -6.77477e-10 -6.77477e-10 -6.77477e-10 -6.77477e-10 
-6.27585e-11 -6.27585e-11 -6.27585e-11 -6.27585e-11 -1.98252e-10 -1.98252e-10 -1.98252e-10 -1.98252e-10 -4.18709e-10 
-4.18709e-10 -4.18709e-10 -4.18709e-10 -3.38415e-10 -3.38415e-10 -3.38415e-10 -3.38415e-10 -6.94275e-11 -6.94275e-11 
-6.94275e-11 -6.94275e-11 -2.67593e-10 -2.67593e-10 -2.67593e-10 -2.67593e-10 -8.53411e-11 -8.53411e-11 -8.53411e-11 
-8.53411e-11 -5.11335e-10 -5.11335e-10 -5.11335e-10 -5.11335e-10 -7.49759e-10 -7.49759e-10 -7.49759e-10 -7.49759e-10 
-6.13755e-11 -6.13755e-11 -6.13755e-11 -6.13755e-11 -1.80483e-10 -1.80483e-10 -1.80483e-10 -1.80483e-10 -2.48016e-10 
-2.48016e-10 -2.48016e-10 -2.48016e-10 -3.20954e-10 -3.20954e-10 -3.20954e-10 -3.20954e-10 -5.57023e-11 -5.57023e-11 
-5.57023e-11 -5.57023e-11 -1.2e-11 -1.2e-11 -1.2e-11 -1.2e-11 -1.51367e-11 -1.51367e-11 -1.51367e-11 
-1.51367e-11 -3.99064e-10 -3.99064e-10 -3.99064e-10 -3.99064e-10 -4.6989e-10 -4.6989e-10 -4.6989e-10 -4.6989e-10 
-7.61124e-12 -7.61124e-12 -7.61124e-12 -7.61124e-12 -9.77867e-10 -9.77867e-10 -9.77867e-10 -9.77867e-10 -7.47333e-10 
-7.47333e-10 -7.47333e-10 -7.47333e-10 -5.72253e-10 -5.72253e-10 -5.72253e-10 -5.72253e-10 -6.18351e-12 -6.18351e-12 
-6.18351e-12 -6.18351e-12 -4.16845e-12 -4.16845e-12 -4.16845e-12 -4.16845e-12 4.35516e-12 4.35516e-12 4.35516e-12 
4.35516e-12 4.47759e-11 4.47759e-11 4.47759e-11 4.47759e-11 -8.93041e-10 -8.93041e-10 -8.93041e-10 -8.93041e-10 
6.7054e-12 6.7054e-12 6.7054e-12 6.7054e-12 -1.00953e-09 -1.00953e-09 -1.00953e-09 -1.00953e-09 1.34892e-11 
1.34892e-11 1.34892e-11 1.34892e-11 2.19737e-11 2.19737e-11 2.19737e-11 2.19737e-11 1.63301e-11 1.63301e-11 
1.63301e-11 1.63301e-11 2.24683e-11 2.24683e-11 2.24683e-11 2.24683e-11 2.07918e-11 2.07918e-11 2.07918e-11 
2.07918e-11 -1.02764e-09 -1.02764e-09 -1.02764e-09 -1.02764e-09 2.23835e-11 2.23835e-11 2.23835e-11 2.23835e-11 
2.32312e-11 2.32312e-11 2.32312e-11 2.32312e-11 -1.04307e-09 -1.04307e-09 -1.04307e-09 -1.04307e-09 2.32997e-11 
2.32997e-11 2.32997e-11 2.32997e-11 -8.38789e-10 -8.38789e-10 -8.38789e-10 -8.38789e-10 -9.992e-10 -9.992e-10 
-9.992e-10 -9.992e-10 1.5961e-11 1.5961e-11 1.5961e-11 1.5961e-11 2.32198e-11 2.32198e-11 2.32198e-11 
2.32198e-11 4.85704e-11 4.85704e-11 4.85704e-11 4.85704e-11 1.8436e-11 1.8436e-11 1.8436e-11 1.8436e-11 
4.94843e-11 4.94843e-11 4.94843e-11 4.94843e-11 -9.83595e-10 -9.83595e-10 -9.83595e-10 -9.83595e-10 -6.58625e-10 
-6.58625e-10 -6.58625e-10 -6.58625e-10 1.36166e-11 1.36166e-11 1.36166e-11 1.36166e-11 -9.29936e-10 -9.29936e-10 
-9.29936e-10 -9.29936e-10 -9.385e-10 -9.385e-10 -9.385e-10 -9.385e-10 1.50273e-11 1.50273e-11 1.50273e-11 
1.50273e-11 -8.8832e-10 -8.8832e-10 -8.8832e-10 -8.8832e-10 -9.61393e-10 -9.61393e-10 -9.61393e-10 -9.61393e-10 
1.25575e-11 1.25575e-11 1.25575e-11 1.25575e-11 1.12272e-11 1.12272e-11 1.12272e-11 1.12272e-11 -9.19878e-10 
-9.19878e-10 -9.19878e-10 -9.19878e-10 -9.00155e-10 -9.00155e-10 -9.00155e-10 -9.00155e-10 6.69628e-12 6.69628e-12 
6.69628e-12 6.69628e-12 1.12608e-11 1.12608e-11 1.12608e-11 1.12608e-11 2.75397e-12 2.75397e-12 2.75397e-12 
2.75397e-12 -9.0996e-10 -9.0996e-10 -9.0996e-10 -9.0996e-10 5.82457e-12 5.82457e-12 5.82457e-12 5.82457e-12 
4.6805e-12 4.6805e-12 4.6805e-12 4.6805e-12 -8.05857e-10 -8.05857e-10 -8.05857e-10 -8.05857e-10 3.83416e-12 
3.83416e-12 3.83416e-12 3.83416e-12 -8.42715e-10 -8.42715e-10 -8.42715e-10 -8.42715e-10 2.02044e-12 2.02044e-12 
2.02044e-12 2.02044e-12 -8.54523e-10 -8.54523e-10 -8.54523e-10 -8.54523e-10 1.12292e-12 1.12292e-12 1.12292e-12 
1.12292e-12 -8.30739e-10 -8.30739e-10 -8.30739e-10 -8.30739e-10 -1.17976e-12 -1.17976e-12 -1.17976e-12 -1.17976e-12 
-2.64371e-12 -2.64371e-12 -2.64371e-12 -2.64371e-12 -1.88818e-12 -1.88818e-12 -1.88818e-12 -1.88818e-12 -7.90248e-10 
-7.90248e-10 -7.90248e-10 -7.90248e-10 -6.84401e-10 -6.84401e-10 -6.84401e-10 -6.84401e-10 -3.22978e-12 -3.22978e-12 
-3.22978e-12 -3.22978e-12 -7.54827e-10 -7.54827e-10 -7.54827e-10 -7.54827e-10 -3.80944e-12 -3.80944e-12 -3.80944e-12 
-3.80944e-12 -7.43043e-10 -7.43043e-10 -7.43043e-10 -7.43043e-10 -7.92574e-10 -7.92574e-10 -7.92574e-10 -7.92574e-10 
-2.2641e-11 -2.2641e-11 -2.2641e-11 -2.2641e-11 -8.09219e-12 -8.09219e-12 -8.09219e-12 -8.09219e-12 -1.73127e-11 
-1.73127e-11 -1.73127e-11 -1.73127e-11 -7.17145e-10 -7.17145e-10 -7.17145e-10 -7.17145e-10 -6.79673e-10 -6.79673e-10 
-6.79673e-10 -6.79673e-10 -6.68878e-10 -6.68878e-10 -6.68878e-10 -6.68878e-10 -6.83455e-12 -6.83455e-12 -6.83455e-12 
-6.83455e-12 -8.82226e-12 -8.82226e-12 -8.82226e-12 -8.82226e-12 -2.42687e-11 -2.42687e-11 -2.42687e-11 -2.42687e-11 
-5.58479e-10 -5.58479e-10 -5.58479e-10 -5.58479e-10 -6.4479e-10 -6.4479e-10 -6.4479e-10 -6.4479e-10 -4.88274e-12 
-4.88274e-12 -4.88274e-12 -4.88274e-12 -6.56395e-10 -6.56395e-10 -6.56395e-10 -6.56395e-10 -8.51762e-12 -8.51762e-12 
-8.51762e-12 -8.51762e-12 -6.0693e-10 -6.0693e-10 -6.0693e-10 -6.0693e-10 -9.5298e-12 -9.5298e-12 -9.5298e-12 
-9.5298e-12 -1.02244e-11 -1.02244e-11 -1.02244e-11 -1.02244e-11 -5.96716e-10 -5.96716e-10 -5.96716e-10 -5.96716e-10 
-5.09662e-10 -5.09662e-10 -5.09662e-10 -5.09662e-10 -9.71211e-12 -9.71211e-12 -9.71211e-12 -9.71211e-12 -5.48414e-10 
-5.48414e-10 -5.48414e-10 -5.48414e-10 -5.21037e-10 -5.21037e-10 -5.21037e-10 -5.21037e-10 -1.03378e-11 -1.03378e-11 
-1.03378e-11 -1.03378e-11 -1.02084e-11 -1.02084e-11 -1.02084e-11 -1.02084e-11 -4.95888e-10 -4.95888e-10 -4.95888e-10 
-4.95888e-10 -1.00451e-11 -1.00451e-11 -1.00451e-11 -1.00451e-11 -4.49946e-10 -4.49946e-10 -4.49946e-10 -4.49946e-10 
-4.82729e-10 -4.82729e-10 -4.82729e-10 -4.82729e-10 -9.97707e-12 -9.97707e-12 -9.97707e-12 -9.97707e-12 -4.70606e-10 
-4.70606e-10 -4.70606e-10 -4.70606e-10 -4.52509e-11 -4.52509e-11 -4.52509e-11 -4.52509e-11 -3.98675e-10 -3.98675e-10 
-3.98675e-10 -3.98675e-10 -2.63957e-11 -2.63957e-11 -2.63957e-11 -2.63957e-11 -9.62928e-12 -9.62928e-12 -9.62928e-12 
-9.62928e-12 -9.36049e-12 -9.36049e-12 -9.36049e-12 -9.36049e-12 -4.16333e-10 -4.16333e-10 -4.16333e-10 -4.16333e-10 
-2.54428e-11 -2.54428e-11 -2.54428e-11 -2.54428e-11 -8.78537e-12 -8.78537e-12 -8.78537e-12 -8.78537e-12 -4.07044e-10 
-4.07044e-10 -4.07044e-10 -4.07044e-10 -9.05199e-12 -9.05199e-12 -9.05199e-12 -9.05199e-12 -3.77123e-10 -3.77123e-10 
-3.77123e-10 -3.77123e-10 -2.44082e-11 -2.44082e-11 -2.44082e-11 -2.44082e-11 -9.72134e-12 -9.72134e-12 -9.72134e-12 
-9.72134e-12 -8.25336e-12 -8.25336e-12 -8.25336e-12 -8.25336e-12 -3.19053e-10 -3.19053e-10 -3.19053e-10 -3.19053e-10 
-2.16968e-11 -2.16968e-11 -2.16968e-11 -2.16968e-11 -2.86981e-10 -2.86981e-10 -2.86981e-10 -2.86981e-10 -6.9892e-12 
-6.9892e-12 -6.9892e-12 -6.9892e-12 -3.24633e-10 -3.24633e-10 -3.24633e-10 -3.24633e-10 -3.15432e-12 -3.15432e-12 
-3.15432e-12 -3.15432e-12 -3.08837e-10 -3.08837e-10 -3.08837e-10 -3.08837e-10 -2.56445e-10 -2.56445e-10 -2.56445e-10 
-2.56445e-10 -3.69e-10 -3.69e-10 -3.69e-10 -3.69e-10 -5.37875e-12 -5.37875e-12 -5.37875e-12 -5.37875e-12 
-1.70133e-11 -1.70133e-11 -1.70133e-11 -1.70133e-11 -4.99753e-12 -4.99753e-12 -4.99753e-12 -4.99753e-12 -1.88594e-11 
-1.88594e-11 -1.88594e-11 -1.88594e-11 -2.4651e-10 -2.4651e-10 -2.4651e-10 -2.4651e-10 -2.69876e-12 -2.69876e-12 
-2.69876e-12 -2.69876e-12 -2.52164e-10 -2.52164e-10 -2.52164e-10 -2.52164e-10 -1.77817e-11 -1.77817e-11 -1.77817e-11 
-1.77817e-11 -4.16065e-12 -4.16065e-12 -4.16065e-12 -4.16065e-12 -2.33034e-10 -2.33034e-10 -2.33034e-10 -2.33034e-10 
-1.95085e-11 -1.95085e-11 -1.95085e-11 -1.95085e-11 -9.91494e-12 -9.91494e-12 -9.91494e-12 -9.91494e-12 -2.52755e-12 
-2.52755e-12 -2.52755e-12 -2.52755e-12 -7.98666e-12 -7.98666e-12 -7.98666e-12 -7.98666e-12 -2.42893e-12 -2.42893e-12 
-2.42893e-12 -2.42893e-12 -2.47227e-12 -2.47227e-12 -2.47227e-12 -2.47227e-12 -1.28154e-11 -1.28154e-11 -1.28154e-11 